Compound,smiles,rt_min,b_rotR,PEOE_PC+,PEOE_VSA+1,CC_Tem,CC_Speed,CC_Particle Size,CC_Inner Diameter,CC_Length,CC_PhaseA_W_per,CC_PhaseA_O_per,CC_PhaseA_FA_per,CC_PhaseA_TFA_per,CC_PhaseB_O_pKa,CC_PhaseB_O_per,CC_PhaseB_W_per,CC_PhaseB_FA_per,CC_PhaseB_TFA_per,CC_RT-initial,CC_RT-final,CC_time
compound 1,ClC(C=C1)=CC=C1C2=N[C@@H](CC(NCCCCNC(COC3=CC=CC(C(N4C5C(NC(CC5)=O)=O)=O)=C3C4=O)=O)=O)C6=NN=C(C)N6C7C2C(C)=C(C)S7,7.11,0.22950819,3.8749537,71.520378,40,0.4,1.6,2.1,150,99.9,0,0.1,0,-4.3,99.9,0,0.1,0,0.5,95,10
compound 2,ClC(C=C1)=CC=C1C2=N[C@@H](CC(NCCCCCCCCNC(COC3=CC=CC(C(N4C5C(NC(CC5)=O)=O)=O)=C3C4=O)=O)=O)C6=NN=C(C)N6C7C2C(C)=C(C)S7,7.93,0.27692309,3.8749557,71.520378,40,0.4,1.6,2.1,150,99.9,0,0.1,0,-4.3,99.9,0,0.1,0,0.5,95,10
compound 3,O=C(C(N(CC1=C2C=CC(C#CCN3CCN(C(/C=C/C(N4C[C@H](N5N=C(C6=CC=C(OC7=CC=CC=C7)C=C6)C8=C(N)N=CN=C85)CCC4)=O)=O)CC3)=C1)C2=O)CC9)NC9=O,16.007,0.17142858,4.0408015,109.35861,25,1,5,4.6,250,99.9,0,0.1,0,15.3,100,0,0,0,10,90,15
compound 4,O=C(C(N(CC1=C2C=CC(C#CCN3CCN(C(CCC(N4C[C@H](N5N=C(C6=CC=C(OC7=CC=CC=C7)C=C6)C8=C(N)N=CN=C85)CCC4)=O)=O)CC3)=C1)C2=O)CC9)NC9=O,15.43,0.18571429,4.0576463,109.35861,25,1,5,4.6,250,99.9,0,0.1,0,15.3,100,0,0,0,10,90,15
compound 5,FC1=CC=C(CNC2=NC3=C(C(NC4=NNC(C)=C4)=N2)C=NN3C5CCN(C(CCCCCOC6=CC(C(N(C7C(NC(CC7)=O)=O)C8=O)=O)=C8C=C6)=O)CC5)C(F)=C1,8.393,0.22727273,4.2037001,114.42612,35,1,5,4.6,50,99.9,0,0.1,0,-4.3,99.9,0,0.1,0,10,90,16
compound 6,FC1=CC=C(CNC2=NC3=C(C(NC4=NNC(C)=C4)=N2)C=NN3C5CCN(C(CCCCCCCCCCCOC6=CC(C(N(C7C(NC(CC7)=O)=O)C8=O)=O)=C8C=C6)=O)CC5)C(F)=C1,10.87,0.29166666,4.2037001,114.42612,35,1,5,4.6,50,99.9,0,0.1,0,-4.3,99.9,0,0.1,0,10,90,16